Program Version,EnergyPlus, Version 9.5.0-de239b2e5f, YMD=2022.10.11 11:39
1,5,Environment Title[],Latitude[deg],Longitude[deg],Time Zone[],Elevation[m]
2,8,Day of Simulation[],Month[],Day of Month[],DST Indicator[1=yes 0=no],Hour[],StartMinute[],EndMinute[],DayType
3,5,Cumulative Day of Simulation[],Month[],Day of Month[],DST Indicator[1=yes 0=no],DayType  ! When Daily Report Variables Requested
4,2,Cumulative Days of Simulation[],Month[]  ! When Monthly Report Variables Requested
5,1,Cumulative Days of Simulation[] ! When Run Period Report Variables Requested
6,1,Calendar Year of Simulation[] ! When Annual Report Variables Requested
7,1,Environment,Site Outdoor Air Drybulb Temperature [C] !TimeStep
8,1,Environment,Site Ground Temperature [C] !TimeStep
9,1,Environment,Site Surface Ground Temperature [C] !TimeStep
212,1,EMS,BEE_var [J] !TimeStep
250,1,DX COOLING COIL_UNIT1,Cooling Coil Electricity Energy [J] !TimeStep
287,1,DX COOLING COIL_UNIT1,Cooling Coil Runtime Fraction [] !TimeStep
301,1,MAIN DX HEATING COIL_UNIT1,Heating Coil Electricity Energy [J] !TimeStep
326,1,MAIN DX HEATING COIL_UNIT1,Heating Coil Defrost Electricity Energy [J] !TimeStep
327,1,MAIN DX HEATING COIL_UNIT1,Heating Coil Crankcase Heater Electricity Energy [J] !TimeStep
328,1,MAIN DX HEATING COIL_UNIT1,Heating Coil Runtime Fraction [] !TimeStep
330,1,HEAT PUMP WATER HEATER EVAPORATOR_UNIT1,Cooling Coil Runtime Fraction [] !TimeStep
357,1,SUPPLY FAN_UNIT1,Fan Electricity Energy [J] !TimeStep
382,1,SUPPLY FAN_UNIT1,Fan Air Mass Flow Rate [kg/s] !TimeStep
383,1,OASUPPLYFAN_UNIT1,Fan Electricity Energy [J] !TimeStep
396,1,OASUPPLYFAN_UNIT1,Fan Air Mass Flow Rate [kg/s] !TimeStep
397,1,OAEXHAUSTFAN_UNIT1,Fan Electricity Energy [J] !TimeStep
398,1,OAEXHAUSTFAN_UNIT1,Fan Air Mass Flow Rate [kg/s] !TimeStep
399,1,HEAT PUMP WATER HEATER FAN_UNIT1,Fan Electricity Energy [J] !TimeStep
400,1,HEAT PUMP WATER HEATER FAN_UNIT1,Fan Air Mass Flow Rate [kg/s] !TimeStep
401,1,SUPPLY FAN_UNIT1,Fan Runtime Fraction [] !TimeStep
402,1,OASUPPLYFAN_UNIT1,Fan Runtime Fraction [] !TimeStep
403,1,OAEXHAUSTFAN_UNIT1,Fan Runtime Fraction [] !TimeStep
404,1,HEAT PUMP WATER HEATER FAN_UNIT1,Fan Runtime Fraction [] !TimeStep
405,1,LIVING_UNIT1,Zone Mean Air Temperature [C] !TimeStep
406,1,LIVING_UNIT1,Zone Mean Air Dewpoint Temperature [C] !TimeStep
407,1,ATTIC_UNIT1,Zone Mean Air Temperature [C] !TimeStep
408,1,ATTIC_UNIT1,Zone Mean Air Dewpoint Temperature [C] !TimeStep
532,1,LIVING_UNIT1,Zone Thermostat Heating Setpoint Temperature [C] !TimeStep
533,1,LIVING_UNIT1,Zone Thermostat Cooling Setpoint Temperature [C] !TimeStep
719,1,Whole Building,Facility Total Building Electricity Demand Rate [W] !TimeStep
720,1,Whole Building,Facility Total HVAC Electricity Demand Rate [W] !TimeStep
721,1,OCCUPANCY,Schedule Value [] !TimeStep
748,1,OA_HEAT_RECOVERY_UNIT1,Heat Exchanger Electricity Energy [J] !TimeStep
812,1,SUPP HEATING COIL_UNIT1,Heating Coil Electricity Energy [J] !TimeStep
23,1,Electricity:Building [J] !TimeStep
35,1,Electricity:Zone:LIVING_UNIT1 [J] !TimeStep
251,1,Electricity:HVAC [J] !TimeStep
End of Data Dictionary
1,HOUSTON BUSH INTERCONTINENTAL ANN HTG 99.6% CONDNS DB,  30.00, -95.37,  -6.00,  29.00
2,1, 1,21, 0, 1, 0.00,60.00,WinterDesignDay
7,-1.6
8,20.97
9,13.0
212,0.0
405,20.001276074913034
406,0.28253870437591196
407,0.8256866263898399
408,-1.378377377753309
721,1.0
250,0.0
287,0.0
301,7849147.106044336
326,3928072.0330311546
327,45468.01524865421
328,0.9368499788213136
330,0.0
357,833288.2669987158
382,0.34379743123541586
383,38571.428571428594
396,0.03398513588362889
397,38571.428571428594
398,0.03398513588362889
399,0.0
400,0.0
401,0.9218980460036335
402,1.0
403,1.0
404,0.0
532,20.0
533,26.0
719,740.2246706245592
720,3545.277299573811
748,0.0
812,0.0
23,2507363.126376901
35,2507363.126376901
251,12733118.27846572
2,1, 1,21, 0, 2, 0.00,60.00,WinterDesignDay
7,-1.6
8,20.97
9,13.0
212,12733118.27846572
405,20.00161013981162
406,0.23325743161374608
407,0.8470561995721916
408,-1.3825791746857155
721,1.0
250,0.0
287,0.0
301,7933351.820729343
326,3970211.9216502408
327,38231.71650758984
328,0.9469003937394586
330,0.0
357,842227.684215009
382,0.34809622911421919
383,38571.428571428594
396,0.03398513588362889
397,38571.428571428594
398,0.03398513588362889
399,0.0
400,0.0
401,0.9317880583684957
402,1.0
403,1.0
404,0.0
532,20.0
533,26.0
719,679.4312682558734
720,3580.846111179178
748,0.0
812,0.0
23,2288506.8778496326
35,2288506.8778496326
251,12861166.00024504
2,1, 1,21, 0, 3, 0.00,60.00,WinterDesignDay
7,-1.6
8,20.97
9,13.0
212,12861166.00024504
405,20.000975580775664
406,0.18689159070738169
407,0.8593226953413385
408,-1.3877602871526545
721,1.0
250,0.0
287,0.0
301,7978967.0926489899
326,3993039.889005917
327,34311.67787317087
328,0.9523448918428182
330,0.0
357,847070.334043463
382,0.35043128307613499
383,38571.428571428594
396,0.03398513588362889
397,38571.428571428594
398,0.03398513588362889
399,0.0
400,0.0
401,0.9371456634028391
402,1.0
403,1.0
404,0.0
532,20.0
533,26.0
719,658.9075088286876
720,3600.1144029762219
748,0.0
812,0.0
23,2214621.3439117635
35,2214621.3439117635
251,12930531.850714399
2,1, 1,21, 0, 4, 0.00,60.00,WinterDesignDay
7,-1.6
8,20.97
9,13.0
212,12930531.850714399
405,20.00137435199846
406,0.14679586709292917
407,0.8674397014812519
408,-1.3926590644896913
721,1.0
250,0.0
287,0.0
301,8007760.354655535
326,4007449.353588451
327,31837.271940100214
328,0.9557815667498608
330,0.0
357,850127.1104134969
382,0.35190750748678875
383,38571.428571428594
396,0.03398513588362889
397,38571.428571428594
398,0.03398513588362889
399,0.0
400,0.0
401,0.940527489685782
402,1.0
403,1.0
404,0.0
532,20.0
533,26.0
719,643.6687072935786
720,3612.2769299279009
748,0.0
812,0.0
23,2159761.658385371
35,2159761.658385371
251,12974316.947740443
2,1, 1,21, 0, 5, 0.00,60.00,WinterDesignDay
7,-1.6
8,20.97
9,13.0
212,12974316.947740443
405,20.00092993000888
406,0.11565762012317894
407,0.8661344194153585
408,-1.3971388634972369
721,1.0
250,0.0
287,0.0
301,7998272.608032856
326,4002701.2514492606
327,32652.620216002153
328,0.9546491385888859
330,0.0
357,849119.8636599166
382,0.35142087650877
383,38571.428571428594
396,0.03398513588362889
397,38571.428571428594
398,0.03398513588362889
399,0.0
400,0.0
401,0.9394131348451534
402,1.0
403,1.0
404,0.0
532,20.0
533,26.0
719,683.5481417172584
720,3608.2692223613596
748,0.0
812,0.0
23,2299781.9639543166
35,2299781.9639543166
251,12959889.200500895
2,1, 1,21, 0, 6, 0.00,60.00,WinterDesignDay
7,-1.6
8,20.97
9,13.0
212,12959889.200500895
405,20.00174718167713
406,0.10261199526964966
407,0.8496524384146639
408,-1.4011467278758839
721,1.0
250,0.0
287,0.0
301,7916886.147024142
326,3961971.7458053256
327,39646.726751962065
328,0.944935101733386
330,0.0
357,840479.6404439593
382,0.3472544398724617
383,38571.428571428594
396,0.03398513588362889
397,38571.428571428594
398,0.03398513588362889
399,0.0
400,0.0
401,0.9298541320182977
402,1.0
403,1.0
404,0.0
532,20.0
533,26.0
719,831.6659052068616
720,3573.8908658800689
748,0.0
812,0.0
23,2827244.217687898
35,2827244.217687898
251,12836127.117168248
2,1, 1,21, 0, 7, 0.00,60.00,WinterDesignDay
7,-1.6
8,20.97
9,13.0
212,12836127.117168248
405,20.001604544806268
406,0.12361680180055376
407,0.8286491484822084
408,-1.4033192738674694
721,1.0
250,0.0
287,0.0
301,7822542.015317172
326,3914757.6293883479
327,47754.37635390922
328,0.9336744772862372
330,0.0
357,830463.793250694
382,0.3424423282752189
383,38571.428571428594
396,0.03398513588362889
397,38571.428571428594
398,0.03398513588362889
399,0.0
400,0.0
401,0.9187732248194013
402,1.0
403,1.0
404,0.0
532,20.0
533,26.0
719,949.6122479534823
720,3534.0390754036059
748,0.0
812,0.0
23,3406194.2883854808
35,3406194.2883854808
251,12692660.67145298
2,1, 1,21, 0, 8, 0.00,60.00,WinterDesignDay
7,-1.6
8,20.97
9,13.0
212,12692660.67145298
405,20.000216035327648
406,0.14797352543229895
407,0.9940267356189492
408,-1.397014316376479
721,0.8831
250,0.0
287,0.0
301,8378232.677039334
326,4192850.6397291168
327,0.0
328,1.0
330,1.0
357,903883.3205157175
382,0.37707938860237436
383,38571.428571428594
396,0.03398513588362889
397,38571.428571428594
398,0.03398513588362889
399,38841.428571428565
400,0.09064312267173463
401,1.0
402,1.0
403,1.0
404,1.0
532,20.0
533,26.0
719,1057.9506694471839
720,4689.918677918326
748,0.0
812,1615770.08541395
23,3797542.2276464195
35,3797542.2276464195
251,15206721.008412406
2,1, 1,21, 0, 9, 0.00,60.00,WinterDesignDay
7,-1.6
8,20.97
9,13.0
212,15206721.008412406
405,20.000772591675127
406,0.09202635399350716
407,0.9936366999897699
408,-1.3939197843559235
721,0.40861
250,0.0
287,0.0
301,8378232.677039334
326,4192850.6397291168
327,0.0
328,1.0
330,0.7813524398428048
357,903883.3205157175
382,0.37707938860237436
383,38571.428571428594
396,0.03398513588362889
397,38571.428571428594
398,0.03398513588362889
399,30348.84498126574
400,0.07082422505453051
401,1.0
402,1.0
403,1.0
404,0.7813524398428048
532,20.0
533,26.0
719,946.8005581827413
720,4516.0158793889499
748,0.0
812,1329169.4000682424
23,3403606.7292179537
35,3403606.7292179537
251,14911627.739476536
2,1, 1,21, 0,10, 0.00,60.00,WinterDesignDay
7,-1.6
8,20.97
9,13.0
212,14911627.739476536
405,20.001527698586398
406,-0.010774974362346026
407,0.9136921102554433
408,-1.4016607715875285
721,0.24189
250,0.0
287,0.0
301,8162686.426050656
326,4084981.442108736
327,18523.393500058384
328,0.9742730645832523
330,0.0
357,866574.5123798006
382,0.35988113220633097
383,38571.428571428594
396,0.03398513588362889
397,38571.428571428594
398,0.03398513588362889
399,0.0
400,0.0
401,0.9587238670201038
402,1.0
403,1.0
404,0.0
532,20.0
533,26.0
719,907.9148232421412
720,3677.7190642172524
748,0.0
812,0.0
23,3265169.3089626759
35,3265169.3089626759
251,13209908.631182109
2,1, 1,21, 0,11, 0.00,60.00,WinterDesignDay
7,-1.6
8,20.97
9,13.0
212,13209908.631182109
405,20.000395852148075
406,-0.09921700122951748
407,0.9175175283408524
408,-1.4133646496381234
721,0.24189
250,0.0
287,0.0
301,8187572.740823354
326,4097435.6916906505
327,16384.738806754554
328,0.977243418323952
330,0.0
357,869216.5158776017
382,0.36116679493175388
383,38571.428571428594
396,0.03398513588362889
397,38571.428571428594
398,0.03398513588362889
399,0.0
400,0.0
401,0.9616468145265295
402,1.0
403,1.0
404,0.0
532,20.0
533,26.0
719,927.8850431811844
720,3688.231262317005
748,0.0
812,0.0
23,3337062.1007432315
35,3337062.1007432315
251,13247752.544341218
2,1, 1,21, 0,12, 0.00,60.00,WinterDesignDay
7,-1.6
8,20.97
9,13.0
212,13247752.544341218
405,20.000490766884693
406,-0.1576782964900917
407,1.0350605945110556
408,-1.4229741674343908
721,0.24189
250,0.0
287,0.0
301,8378232.677039334
326,4192850.6397291168
327,0.0
328,1.0
330,1.0
357,903883.3205157175
382,0.37707938860237436
383,38571.428571428594
396,0.03398513588362889
397,38571.428571428594
398,0.03398513588362889
399,38841.428571428565
400,0.09064312267173463
401,1.0
402,1.0
403,1.0
404,1.0
532,20.0
533,26.0
719,940.7449161731125
720,4969.054321285883
748,0.0
812,2614141.3431613075
23,3383357.6435141728
35,3383357.6435141728
251,16205092.266159764
2,1, 1,21, 0,13, 0.00,60.00,WinterDesignDay
7,-1.6
8,20.97
9,13.0
212,16205092.266159764
405,20.00104486111266
406,-0.20257142116924316
407,0.9843462009264475
408,-1.4304029862858763
721,0.24189
250,0.0
287,0.0
301,8378232.677039334
326,4192850.6397291168
327,0.0
328,1.0
330,0.48757025460998845
357,903883.3205157175
382,0.37707938860237436
383,38571.428571428594
396,0.03398513588362889
397,38571.428571428594
398,0.03398513588362889
399,18937.925217987107
400,0.04419489039970207
401,1.0
402,1.0
403,1.0
404,0.48757025460998845
532,20.0
533,26.0
719,923.4112459390897
720,4219.768930003199
748,0.0
812,767320.3121651888
23,3320956.43067169
35,3320956.43067169
251,14338367.731810205
2,1, 1,21, 0,14, 0.00,60.00,WinterDesignDay
7,-1.6
8,20.97
9,13.0
212,14338367.731810205
405,20.00126803088726
406,-0.25074024869291286
407,0.9245112626163048
408,-1.4369986178621588
721,0.24189
250,0.0
287,0.0
301,8198275.9959479
326,4102792.0898507458
327,15464.933403069266
328,0.9785209258290705
330,0.0
357,870352.8045461007
382,0.36172015338263199
383,38571.428571428594
396,0.03398513588362889
397,38571.428571428594
398,0.03398513588362889
399,0.0
400,0.0
401,0.9629039332748326
402,1.0
403,1.0
404,0.0
532,20.0
533,26.0
719,905.0325331677412
720,3692.7524113585207
748,0.0
812,0.0
23,3254793.064694836
35,3254793.064694836
251,13264028.680890674
2,1, 1,21, 0,15, 0.00,60.00,WinterDesignDay
7,-1.6
8,20.97
9,13.0
212,13264028.680890674
405,20.000334952667207
406,-0.29545716491732496
407,0.9207294437043528
408,-1.4428889031232406
721,0.24189
250,0.0
287,0.0
301,8195905.65992776
326,4101605.8653471397
327,15668.632918263886
328,0.9782380098357446
330,0.0
357,870101.162785825
382,0.36159758554816137
383,38571.428571428594
396,0.03398513588362889
397,38571.428571428594
398,0.03398513588362889
399,0.0
400,0.0
401,0.9626255325625239
402,1.0
403,1.0
404,0.0
532,20.0
533,26.0
719,903.6175306509658
720,3691.751160589402
748,0.0
812,0.0
23,3249699.055634444
35,3249699.055634444
251,13260424.178121847
2,1, 1,21, 0,16, 0.00,60.00,WinterDesignDay
7,-1.6
8,20.97
9,13.0
212,13260424.178121847
405,20.00082276584138
406,-0.319506915400133
407,0.9103458996380413
408,-1.4485053192085267
721,0.24189
250,0.0
287,0.0
301,8162144.998105984
326,4084710.486814022
327,18569.922181606344
328,0.9742084414144356
330,0.0
357,866517.032815763
382,0.3598531761748447
383,38571.428571428594
396,0.03398513588362889
397,38571.428571428594
398,0.03398513588362889
399,0.0
400,0.0
401,0.9586602752237594
402,1.0
403,1.0
404,0.0
532,20.0
533,26.0
719,976.7189761929884
720,3677.4903602945098
748,0.0
812,0.0
23,3510426.619465768
35,3510426.619465768
251,13209085.297060235
2,1, 1,21, 0,17, 0.00,60.00,WinterDesignDay
7,-1.6
8,20.97
9,13.0
212,13209085.297060235
405,20.000279413238404
406,-0.29052187548747207
407,1.0151666672546738
408,-1.4502462145558344
721,0.29498
250,0.0
287,0.0
301,8378232.677039334
326,4192850.6397291168
327,0.0
328,1.0
330,1.0
357,903883.3205157175
382,0.37707938860237436
383,38571.428571428594
396,0.03398513588362889
397,38571.428571428594
398,0.03398513588362889
399,38841.428571428565
400,0.09064312267173463
401,1.0
402,1.0
403,1.0
404,1.0
532,20.0
533,26.0
719,1224.3742721570928
720,4807.90164207271
748,0.0
812,2027698.9430100213
23,4395337.575518478
35,4395337.575518478
251,15618649.866008478
2,1, 1,21, 0,18, 0.00,60.00,WinterDesignDay
7,-1.6
8,20.97
9,13.0
212,15618649.866008478
405,20.000966405429734
406,-0.14766392835503823
407,0.9111153495749601
408,-1.4481810422942632
721,0.5531
250,0.0
287,0.0
301,8148488.765422359
326,4077876.2836889715
327,19743.49755379145
328,0.9725784756197341
330,0.37628547000720899
357,865067.2474680141
382,0.359148261593356
383,38571.428571428594
396,0.03398513588362889
397,38571.428571428594
398,0.03398513588362889
399,14615.465205751432
400,0.03410769001745476
401,0.9570563233476236
402,1.0
403,1.0
404,0.37628547000720899
532,20.0
533,26.0
719,1534.6606994995764
720,3852.6354638908007
748,0.0
812,0.0
23,5507493.433711505
35,5507493.433711505
251,13202934.116481746
2,1, 1,21, 0,19, 0.00,60.00,WinterDesignDay
7,-1.6
8,20.97
9,13.0
212,13202934.116481746
405,20.001167832470175
406,0.060575907290699188
407,0.7489747527017128
408,-1.4357281207698365
721,0.89693
250,0.0
287,0.0
301,7393281.0217576459
326,3699935.80468667
327,84643.76905481423
328,0.8824392096460914
330,0.0
357,784892.1987091785
382,0.3207840294526434
383,38571.428571428594
396,0.03398513588362889
397,38571.428571428594
398,0.03398513588362889
399,0.0
400,0.0
401,0.8683556615043546
402,1.0
403,1.0
404,0.0
532,20.0
533,26.0
719,1685.4190197506014
720,3352.7154587086577
748,0.0
812,0.0
23,5888567.229445574
35,5888567.229445574
251,12039895.651351167
2,1, 1,21, 0,20, 0.00,60.00,WinterDesignDay
7,-1.6
8,20.97
9,13.0
212,12039895.651351167
405,19.999752946471057
406,0.21260340019217859
407,0.7200057720923013
408,-1.4119385603973603
721,0.89693
250,0.0
287,0.0
301,7313437.787859533
326,3659978.600436998
327,91505.25531601397
328,0.8729093676166473
330,0.0
357,776415.8089680183
382,0.3167978019116579
383,38571.428571428594
396,0.03398513588362889
397,38571.428571428594
398,0.03398513588362889
399,0.0
400,0.0
401,0.8589779137920459
402,1.0
403,1.0
404,0.0
532,20.0
533,26.0
719,1660.8800780624377
720,3318.988974923173
748,0.0
812,0.0
23,5797708.816103766
35,5797708.816103766
251,11918480.309723422
2,1, 1,21, 0,21, 0.00,60.00,WinterDesignDay
7,-1.6
8,20.97
9,13.0
212,11918480.309723422
405,19.998861569546987
406,0.27358578233485505
407,0.9436868133975565
408,-1.3868662549586342
721,0.89693
250,0.0
287,0.0
301,8378232.677039334
326,4192850.6397291168
327,0.0
328,1.0
330,1.0
357,903883.3205157175
382,0.37707938860237436
383,38571.428571428594
396,0.03398513588362889
397,38571.428571428594
398,0.03398513588362889
399,38841.428571428565
400,0.09064312267173463
401,1.0
402,1.0
403,1.0
404,1.0
532,20.0
533,26.0
719,1640.7656599655348
720,4291.1709468864169
748,0.0
812,164652.44847131289
23,5725296.910954915
35,5725296.910954915
251,13755603.37146977
2,1, 1,21, 0,22, 0.00,60.00,WinterDesignDay
7,-1.6
8,20.97
9,13.0
212,13755603.37146977
405,20.002126477280329
406,0.32134525771255709
407,0.8263759569326131
408,-1.3839775903230918
721,1.0
250,0.0
287,0.0
301,7804034.2538337479
326,3905495.499465842
327,49344.87745142392
328,0.9314654479841334
330,0.4150862250705903
357,828498.9555066454
382,0.3415005394956925
383,38571.428571428594
396,0.03398513588362889
397,38571.428571428594
398,0.03398513588362889
399,16122.541962063253
400,0.037624711618420767
401,0.9165994511702451
402,1.0
403,1.0
404,0.41508622507059025
532,20.0
533,26.0
719,1508.2393842540715
720,3726.0503977324608
748,0.0
812,0.0
23,5254487.803661637
35,5254487.803661637
251,12680638.98536258
2,1, 1,21, 0,23, 0.00,60.00,WinterDesignDay
7,-1.6
8,20.97
9,13.0
212,12680638.98536258
405,20.002842145948287
406,0.34049329798693436
407,0.7540498596022631
408,-1.3824850307262238
721,1.0
250,0.0
287,0.0
301,7469974.268839995
326,3738316.6115331298
327,78052.98314233632
328,0.8915930789689773
330,0.0
357,793034.1766958751
382,0.32462537935497079
383,38571.428571428594
396,0.03398513588362889
397,38571.428571428594
398,0.03398513588362889
399,0.0
400,0.0
401,0.8773634369571102
402,1.0
403,1.0
404,0.0
532,20.0
533,26.0
719,1209.9855943918583
720,3385.111360376165
748,0.0
812,0.0
23,4189416.702401155
35,4189416.702401155
251,12156520.897354195
2,1, 1,21, 0,24, 0.00,60.00,WinterDesignDay
7,-1.6
8,20.97
9,13.0
212,12156520.897354195
405,20.00264891751732
406,0.32522269620542
407,0.792094231837576
408,-1.378548472084959
721,1.0
250,0.0
287,0.0
301,7666916.069598328
326,3836875.2917619498
327,61128.399878541546
328,0.9150994446131368
330,0.0
357,813942.090592296
382,0.33454565660383808
383,38571.428571428594
396,0.03398513588362889
397,38571.428571428594
398,0.03398513588362889
399,0.0
400,0.0
401,0.9004946458442171
402,1.0
403,1.0
404,0.0
532,20.0
533,26.0
719,946.3293368978194
720,3468.301308048326
748,0.0
812,0.0
23,3246680.6811934115
35,3246680.6811934115
251,12456004.708973974
1,HOUSTON BUSH INTERCONTINENTAL ANN CLG .4% CONDNS DB=>MWB,  30.00, -95.37,  -6.00,  29.00
2,1, 7,21, 0, 1, 0.00,60.00,SummerDesignDay
7,27.112000000000003
8,23.79
9,13.0
212,0.0
405,26.000101190459607
406,15.437217882812448
407,26.45281949272795
408,20.345025212470249
721,1.0
250,1344307.0969128416
287,0.14880177251808425
301,0.0
326,0.0
327,0.0
328,0.0
330,0.0
357,134499.44024227042
382,0.04878267905215662
383,38571.428571428594
396,0.03398513588362889
397,38571.428571428594
398,0.03398513588362889
399,0.0
400,0.0
401,0.14880177251808425
402,1.0
403,1.0
404,0.0
532,20.0
533,26.0
719,740.2246706245592
720,440.50816508276918
748,0.0
812,0.0
23,2507363.126376901
35,2507363.126376901
251,1555949.3942979694
2,1, 7,21, 0, 2, 0.00,60.00,SummerDesignDay
7,26.708
8,23.79
9,13.0
212,1555949.3942979694
405,26.000308190738566
406,15.87420371317836
407,26.02053186461214
408,20.351778963016796
721,1.0
250,1009891.126668898
287,0.11208975969202789
301,0.0
326,0.0
327,0.0
328,0.0
330,0.0
357,101316.064186239
382,0.036541110763412407
383,38571.428571428594
396,0.03398513588362889
397,38571.428571428594
398,0.03398513588362889
399,0.0
400,0.0
401,0.11208975969202789
402,1.0
403,1.0
404,0.0
532,20.0
533,26.0
719,679.4312682558734
720,338.39723555499838
748,0.0
812,0.0
23,2288506.8778496326
35,2288506.8778496326
251,1188350.0479979944
2,1, 7,21, 0, 3, 0.00,60.00,SummerDesignDay
7,26.405
8,23.79
9,13.0
212,1188350.0479979944
405,26.00010093707159
406,17.00527740983086
407,25.690876765462826
408,20.374870958363748
721,1.0
250,793049.9684858816
287,0.08809129261217723
301,0.0
326,0.0
327,0.0
328,0.0
330,0.0
357,79624.25007481645
382,0.028612982957969866
383,38571.428571428594
396,0.03398513588362889
397,38571.428571428594
398,0.03398513588362889
399,0.0
400,0.0
401,0.08809129261217723
402,1.0
403,1.0
404,0.0
532,20.0
533,26.0
719,658.9075088286876
720,272.1380765843209
748,0.0
812,0.0
23,2214621.3439117635
35,2214621.3439117635
251,949817.0757035553
2,1, 7,21, 0, 4, 0.00,60.00,SummerDesignDay
7,26.102
8,23.79
9,13.0
212,949817.0757035553
405,26.00001687003075
406,17.88103036790147
407,25.380502712748098
408,20.400588119307405
721,1.0
250,622620.6854692951
287,0.06918683306264754
301,0.0
326,0.0
327,0.0
328,0.0
330,0.0
357,62536.82440463248
382,0.022408182163975413
383,38571.428571428594
396,0.03398513588362889
397,38571.428571428594
398,0.03398513588362889
399,0.0
400,0.0
401,0.06918683306264754
402,1.0
403,1.0
404,0.0
532,20.0
533,26.0
719,643.6687072935786
720,220.05010194910694
748,0.0
812,0.0
23,2159761.658385371
35,2159761.658385371
251,762300.3670167849
2,1, 7,21, 0, 5, 0.00,60.00,SummerDesignDay
7,25.9
8,23.79
9,13.0
212,762300.3670167849
405,25.99293658807163
406,18.563487810908954
407,25.156895382705455
408,20.407854765127536
721,1.0
250,521550.27698902177
287,0.05798004606253294
301,0.0
326,0.0
327,0.0
328,0.0
330,0.0
357,52407.19655865651
382,0.018746658087250409
383,38571.428571428594
396,0.03398513588362889
397,38571.428571428594
398,0.03398513588362889
399,0.0
400,0.0
401,0.05798004606253294
402,1.0
403,1.0
404,0.0
532,20.0
533,26.0
719,683.5481417172584
720,189.16120296959319
748,0.0
812,0.0
23,2299781.9639543166
35,2299781.9639543166
251,651100.3306905355
2,1, 7,21, 0, 6, 0.00,60.00,SummerDesignDay
7,26.102
8,23.79
9,13.0
212,651100.3306905355
405,26.007884629511858
406,19.038081159971296
407,25.240484361542078
408,20.42033538373167
721,1.0
250,531115.4043716097
287,0.05885881764628186
301,0.0
326,0.0
327,0.0
328,0.0
330,0.0
357,53201.503535750366
382,0.01903332174822811
383,38571.428571428594
396,0.03398513588362889
397,38571.428571428594
398,0.03398513588362889
399,0.0
400,0.0
401,0.05885881764628186
402,1.0
403,1.0
404,0.0
532,20.0
533,26.0
719,831.6659052068616
720,192.03882362506037
748,0.0
812,0.0
23,2827244.217687898
35,2827244.217687898
251,661459.7650502173
2,1, 7,21, 0, 7, 0.00,60.00,SummerDesignDay
7,26.808999999999999
8,23.79
9,13.0
212,661459.7650502173
405,26.00046176963211
406,18.747621352249458
407,26.281639316878765
408,20.422117937827616
721,1.0
250,1178410.3555500014
287,0.12952787302182754
301,0.0
326,0.0
327,0.0
328,0.0
330,0.0
357,117078.08396630769
382,0.04233858824592539
383,38571.428571428594
396,0.03398513588362889
397,38571.428571428594
398,0.03398513588362889
399,0.0
400,0.0
401,0.12952787302182754
402,1.0
403,1.0
404,0.0
532,20.0
533,26.0
719,949.6122479534823
720,389.58647129421288
748,0.0
812,0.0
23,3406194.2883854808
35,3406194.2883854808
251,1372631.2966591665
2,1, 7,21, 0, 8, 0.00,60.00,SummerDesignDay
7,28.526
8,23.79
9,13.0
212,1372631.2966591665
405,26.000377006462757
406,17.757440086722125
407,28.72268373734716
408,20.390895498881166
721,0.8831
250,2444822.5605914595
287,0.26382037188696597
301,0.0
326,0.0
327,0.0
328,0.0
330,0.0
357,238462.8337608822
382,0.08804464266695746
383,38571.4285714286
396,0.033985135883628888
397,38571.4285714286
398,0.033985135883628888
399,0.0
400,0.0
401,0.26382037188696597
402,0.9999999999999997
403,0.9999999999999997
404,0.0
532,19.999999999999998
533,26.0
719,1057.9506694471837
720,775.0856254153327
748,0.0
812,0.0
23,3797542.2276464195
35,3797542.2276464195
251,2760428.251495199
2,1, 7,21, 0, 9, 0.00,60.00,SummerDesignDay
7,30.445
8,23.79
9,13.0
212,2760428.251495199
405,26.00036850258613
406,16.417748742641995
407,31.91438335575039
408,20.375212207819659
721,0.40861
250,2767755.6673351365
287,0.2922607083200211
301,0.0
326,0.0
327,0.0
328,0.0
330,0.4545454545454544
357,264169.5794925763
382,0.09839154748082045
383,38571.428571428594
396,0.03398513588362889
397,38571.428571428594
398,0.03398513588362889
399,17655.194805194802
400,0.041201419396243
401,0.2922607083200211
402,0.9999999999999996
403,0.9999999999999996
404,0.4545454545454544
532,19.999999999999998
533,25.999999999999998
719,946.800558182741
720,1104.7071622017116
748,0.0
812,0.0
23,3403606.7292179537
35,3403606.7292179537
251,3126723.2987757648
2,1, 7,21, 0,10, 0.00,60.00,SummerDesignDay
7,32.162
8,23.79
9,13.0
212,3126723.2987757648
405,26.000439545995353
406,15.069827485211079
407,35.29821633081656
408,20.349493136061044
721,0.24189
250,3905500.2372265339
287,0.4048653374859134
301,0.0
326,0.0
327,0.0
328,0.0
330,0.31271910373196307
357,365951.025608484
382,0.13836956793499337
383,38571.4285714286
396,0.033985135883628888
397,38571.4285714286
398,0.033985135883628888
399,12146.456730526203
400,0.028345836081371237
401,0.4048653374859134
402,1.0
403,1.0
404,0.31271910373196307
532,20.0
533,26.000000000000005
719,907.9148232421409
720,1381.4762203151245
748,0.0
812,0.0
23,3265169.3089626759
35,3265169.3089626759
251,4360740.5767084
2,1, 7,21, 0,11, 0.00,60.00,SummerDesignDay
7,33.677
8,23.79
9,13.0
212,4360740.5767084
405,26.000583720137774
406,13.713857328316403
407,38.2111885449663
408,20.326998374974229
721,0.24189
250,5083774.0413300399
287,0.5184723133832464
301,0.0
326,0.0
327,0.0
328,0.0
330,0.0
357,468638.4762163144
382,0.18019943051143615
383,38571.428571428594
396,0.03398513588362889
397,38571.428571428594
398,0.03398513588362889
399,0.0
400,0.0
401,0.5184723133832464
402,0.9999999999999996
403,0.9999999999999996
404,0.0
532,19.999999999999998
533,25.999999999999998
719,927.8850431811842
720,1572.0653818581139
748,0.0
812,0.0
23,3337062.1007432315
35,3337062.1007432315
251,5629555.37468921
2,1, 7,21, 0,12, 0.00,60.00,SummerDesignDay
7,34.687
8,23.79
9,13.0
212,5629555.37468921
405,26.000739735619385
406,12.74411057356577
407,40.43536971590267
408,20.324966107689197
721,0.24189
250,5445772.763229079
287,0.5498093068544054
301,0.0
326,0.0
327,0.0
328,0.0
330,0.0
357,496963.4619300049
382,0.19206620689441643
383,38571.42857142859
396,0.03398513588362889
397,38571.42857142859
398,0.03398513588362889
399,0.0
400,0.0
401,0.5498093068544054
402,1.0
403,1.0
404,0.0
532,20.0
533,26.0
719,940.7449161731126
720,1680.4886339727607
748,0.0
812,0.0
23,3383357.6435141728
35,3383357.6435141728
251,6019879.08230194
2,1, 7,21, 0,13, 0.00,60.00,SummerDesignDay
7,35.495
8,23.79
9,13.0
212,6019879.08230194
405,26.000663694269144
406,12.081330720048883
407,41.96175516086813
408,20.3315909202418
721,0.24189
250,5672521.819612649
287,0.5680933415356951
301,0.0
326,0.0
327,0.0
328,0.0
330,0.0
357,513490.0959101537
382,0.19904653528087075
383,38571.428571428594
396,0.033985135883628888
397,38571.428571428594
398,0.033985135883628888
399,0.0
400,0.0
401,0.5680933415356951
402,0.9999999999999999
403,0.9999999999999999
404,0.0
532,19.999999999999998
533,25.999999999999998
719,923.4112459390896
720,1748.0652146293504
748,0.0
812,0.0
23,3320956.43067169
35,3320956.43067169
251,6263154.772665659
2,1, 7,21, 0,14, 0.00,60.00,SummerDesignDay
7,36.0
8,23.79
9,13.0
212,6263154.772665659
405,26.00091674256004
406,11.5637682030913
407,42.71623018281879
408,20.33599584626727
721,0.24189
250,5716308.727883658
287,0.5698375355557644
301,0.0
326,0.0
327,0.0
328,0.0
330,0.25
357,515066.64379263759
382,0.2000636861638406
383,38571.428571428594
396,0.03398513588362889
397,38571.428571428594
398,0.03398513588362889
399,9710.357142857141
400,0.022660780667933659
401,0.5698375355557644
402,1.0
403,1.0
404,0.25
532,20.0
533,26.0
719,905.0325331677412
720,1885.1260020418438
748,0.0
812,0.0
23,3254793.064694836
35,3254793.064694836
251,6318228.58596201
2,1, 7,21, 0,15, 0.00,60.00,SummerDesignDay
7,36.0
8,23.79
9,13.0
212,6318228.58596201
405,25.999355572895327
406,11.117779623009636
407,42.585392499295938
408,20.335015881125078
721,0.24189
250,5676349.09607072
287,0.5670184105959502
301,0.0
326,0.0
327,0.0
328,0.0
330,0.573423450460295
357,512518.48376301195
382,0.1986336529857679
383,38571.428571428594
396,0.03398513588362889
397,38571.428571428594
398,0.03398513588362889
399,22272.585992235658
400,0.05197689216292187
401,0.5670184105959502
402,1.0
403,1.0
404,0.573423450460295
532,20.0
533,26.0
719,903.6175306509658
720,2042.2695247216955
748,0.0
812,0.0
23,3249699.055634444
35,3249699.055634444
251,6288283.022968824
2,1, 7,21, 0,16, 0.00,60.00,SummerDesignDay
7,35.394
8,23.79
9,13.0
212,6288283.022968824
405,26.002724531541796
406,10.653097840399113
407,41.27448286842246
408,20.291865658168058
721,0.24189
250,6740548.284174964
287,0.680288674335653
301,0.0
326,0.0
327,0.0
328,0.0
330,0.0
357,614901.5858677455
382,0.24282457348774598
383,38571.428571428594
396,0.03398513588362889
397,38571.428571428594
398,0.03398513588362889
399,0.0
400,0.0
401,0.680288674335653
402,1.0
403,1.0
404,0.0
532,20.0
533,26.0
719,976.7189761929885
720,2072.90909088488
748,0.0
812,0.0
23,3510426.619465768
35,3510426.619465768
251,7432592.727185566
2,1, 7,21, 0,17, 0.00,60.00,SummerDesignDay
7,34.586
8,23.79
9,13.0
212,7432592.727185566
405,26.001982627089548
406,10.32095143565779
407,39.33205848743382
408,20.270517549079597
721,0.29498
250,6776745.386592606
287,0.69271421434773
301,0.0
326,0.0
327,0.0
328,0.0
330,0.0
357,626132.8242330626
382,0.24777395901234823
383,38571.428571428594
396,0.033985135883628888
397,38571.428571428594