Program Version,EnergyPlus, Version 9.5.0-de239b2e5f, YMD=2022.10.11 11:39
1,5,Environment Title[],Latitude[deg],Longitude[deg],Time Zone[],Elevation[m]
2,8,Day of Simulation[],Month[],Day of Month[],DST Indicator[1=yes 0=no],Hour[],StartMinute[],EndMinute[],DayType
3,5,Cumulative Day of Simulation[],Month[],Day of Month[],DST Indicator[1=yes 0=no],DayType  ! When Daily Meters Requested
4,2,Cumulative Days of Simulation[],Month[]  ! When Monthly Meters Requested
5,1,Cumulative Days of Simulation[] ! When Run Period Meters Requested
6,1,Calendar Year of Simulation[] ! When Annual Meters Requested
23,1,Electricity:Building [J] !TimeStep
35,1,Electricity:Zone:LIVING_UNIT1 [J] !TimeStep
251,1,Electricity:HVAC [J] !TimeStep
End of Data Dictionary
1,HOUSTON BUSH INTERCONTINENTAL ANN HTG 99.6% CONDNS DB,  30.00, -95.37,  -6.00,  29.00
2,1, 1,21, 0, 1, 0.00,60.00,WinterDesignDay
23,2507363.126376901
35,2507363.126376901
251,12733118.27846572
2,1, 1,21, 0, 2, 0.00,60.00,WinterDesignDay
23,2288506.8778496326
35,2288506.8778496326
251,12861166.00024504
2,1, 1,21, 0, 3, 0.00,60.00,WinterDesignDay
23,2214621.3439117635
35,2214621.3439117635
251,12930531.850714399
2,1, 1,21, 0, 4, 0.00,60.00,WinterDesignDay
23,2159761.658385371
35,2159761.658385371
251,12974316.947740443
2,1, 1,21, 0, 5, 0.00,60.00,WinterDesignDay
23,2299781.9639543166
35,2299781.9639543166
251,12959889.200500895
2,1, 1,21, 0, 6, 0.00,60.00,WinterDesignDay
23,2827244.217687898
35,2827244.217687898
251,12836127.117168248
2,1, 1,21, 0, 7, 0.00,60.00,WinterDesignDay
23,3406194.2883854808
35,3406194.2883854808
251,12692660.67145298
2,1, 1,21, 0, 8, 0.00,60.00,WinterDesignDay
23,3797542.2276464195
35,3797542.2276464195
251,15206721.008412406
2,1, 1,21, 0, 9, 0.00,60.00,WinterDesignDay
23,3403606.7292179537
35,3403606.7292179537
251,14911627.739476536
2,1, 1,21, 0,10, 0.00,60.00,WinterDesignDay
23,3265169.3089626759
35,3265169.3089626759
251,13209908.631182109
2,1, 1,21, 0,11, 0.00,60.00,WinterDesignDay
23,3337062.1007432315
35,3337062.1007432315
251,13247752.544341218
2,1, 1,21, 0,12, 0.00,60.00,WinterDesignDay
23,3383357.6435141728
35,3383357.6435141728
251,16205092.266159764
2,1, 1,21, 0,13, 0.00,60.00,WinterDesignDay
23,3320956.43067169
35,3320956.43067169
251,14338367.731810205
2,1, 1,21, 0,14, 0.00,60.00,WinterDesignDay
23,3254793.064694836
35,3254793.064694836
251,13264028.680890674
2,1, 1,21, 0,15, 0.00,60.00,WinterDesignDay
23,3249699.055634444
35,3249699.055634444
251,13260424.178121847
2,1, 1,21, 0,16, 0.00,60.00,WinterDesignDay
23,3510426.619465768
35,3510426.619465768
251,13209085.297060235
2,1, 1,21, 0,17, 0.00,60.00,WinterDesignDay
23,4395337.575518478
35,4395337.575518478
251,15618649.866008478
2,1, 1,21, 0,18, 0.00,60.00,WinterDesignDay
23,5507493.433711505
35,5507493.433711505
251,13202934.116481746
2,1, 1,21, 0,19, 0.00,60.00,WinterDesignDay
23,5888567.229445574
35,5888567.229445574
251,12039895.651351167
2,1, 1,21, 0,20, 0.00,60.00,WinterDesignDay
23,5797708.816103766
35,5797708.816103766
251,11918480.309723422
2,1, 1,21, 0,21, 0.00,60.00,WinterDesignDay
23,5725296.910954915
35,5725296.910954915
251,13755603.37146977
2,1, 1,21, 0,22, 0.00,60.00,WinterDesignDay
23,5254487.803661637
35,5254487.803661637
251,12680638.98536258
2,1, 1,21, 0,23, 0.00,60.00,WinterDesignDay
23,4189416.702401155
35,4189416.702401155
251,12156520.897354195
2,1, 1,21, 0,24, 0.00,60.00,WinterDesignDay
23,3246680.6811934115
35,3246680.6811934115
251,12456004.708973974
1,HOUSTON BUSH INTERCONTINENTAL ANN CLG .4% CONDNS DB=>MWB,  30.00, -95.37,  -6.00,  29.00
2,1, 7,21, 0, 1, 0.00,60.00,SummerDesignDay
23,2507363.126376901
35,2507363.126376901
251,1555949.3942979694
2,1, 7,21, 0, 2, 0.00,60.00,SummerDesignDay
23,2288506.8778496326
35,2288506.8778496326
251,1188350.0479979944
2,1, 7,21, 0, 3, 0.00,60.00,SummerDesignDay
23,2214621.3439117635
35,2214621.3439117635
251,949817.0757035553
2,1, 7,21, 0, 4, 0.00,60.00,SummerDesignDay
23,2159761.658385371
35,2159761.658385371
251,762300.3670167849
2,1, 7,21, 0, 5, 0.00,60.00,SummerDesignDay
23,2299781.9639543166
35,2299781.9639543166
251,651100.3306905355
2,1, 7,21, 0, 6, 0.00,60.00,SummerDesignDay
23,2827244.217687898
35,2827244.217687898
251,661459.7650502173
2,1, 7,21, 0, 7, 0.00,60.00,SummerDesignDay
23,3406194.2883854808
35,3406194.2883854808
251,1372631.2966591665
2,1, 7,21, 0, 8, 0.00,60.00,SummerDesignDay
23,3797542.2276464195
35,3797542.2276464195
251,2760428.251495199
2,1, 7,21, 0, 9, 0.00,60.00,SummerDesignDay
23,3403606.7292179537
35,3403606.7292179537
251,3126723.2987757648
2,1, 7,21, 0,10, 0.00,60.00,SummerDesignDay
23,3265169.3089626759
35,3265169.3089626759
251,4360740.5767084
2,1, 7,21, 0,11, 0.00,60.00,SummerDesignDay
23,3337062.1007432315
35,3337062.1007432315
251,5629555.37468921
2,1, 7,21, 0,12, 0.00,60.00,SummerDesignDay
23,3383357.6435141728
35,3383357.6435141728
251,6019879.08230194
2,1, 7,21, 0,13, 0.00,60.00,SummerDesignDay
23,3320956.43067169
35,3320956.43067169
251,6263154.772665659
2,1, 7,21, 0,14, 0.00,60.00,SummerDesignDay
23,3254793.064694836
35,3254793.064694836
251,6318228.58596201
2,1, 7,21, 0,15, 0.00,60.00,SummerDesignDay
23,3249699.055634444
35,3249699.055634444
251,6288283.022968824
2,1, 7,21, 0,16, 0.00,60.00,SummerDesignDay
23,3510426.619465768
35,3510426.619465768
251,7432592.727185566
2,1, 7,21, 0,17, 0.00,60.00,SummerDesignDay
23,4395337.575518478
35,4395337.575518478
251,7480021.067968525
2,1, 7,21, 0,18, 0.00,60.00,SummerDesignDay
23,5507493.433711505
35,5507493.433711505
251,7264387.7358016599
2,1, 7,21, 0,19, 0.00,60.00,SummerDesignDay
23,5888567.229445574
35,5888567.229445574
251,6458554.551544173
2,1, 7,21, 0,20, 0.00,60.00,SummerDesignDay
23,5797708.816103766
35,5797708.816103766
251,5141926.08717804
2,1, 7,21, 0,21, 0.00,60.00,SummerDesignDay
23,5725296.910954915
35,5725296.910954915
251,3055637.451622548
2,1, 7,21, 0,22, 0.00,60.00,SummerDesignDay
23,5254487.803661637
35,5254487.803661637
251,3476033.2473073045
2,1, 7,21, 0,23, 0.00,60.00,SummerDesignDay
23,4189416.702401155
35,4189416.702401155
251,2690196.5820564564
2,1, 7,21, 0,24, 0.00,60.00,SummerDesignDay
23,3246680.6811934115
35,3246680.6811934115
251,2055207.2172183644
1,ANNUAL,  30.00, -95.37,  -6.00,  29.00
2,1, 8, 1, 0, 1, 0.00,60.00,Tuesday
23,2486500.2610301256
35,2486500.2610301256
251,3548919.338078145
2,1, 8, 1, 0, 2, 0.00,60.00,Tuesday
23,2275929.455018319
35,2275929.455018319
251,2570922.3212914338
2,1, 8, 1, 0, 3, 0.00,60.00,Tuesday
23,2206408.707058266
35,2206408.707058266
251,1610539.1208260854
2,1, 8, 1, 0, 4, 0.00,60.00,Tuesday
23,2155182.0550951475
35,2155182.0550951475
251,1081620.1538270112
2,1, 8, 1, 0, 5, 0.00,60.00,Tuesday
23,2291055.620266884
35,2291055.620266884
251,742282.8991702782
2,1, 8, 1, 0, 6, 0.00,60.00,Tuesday
23,2813501.501521538
35,2813501.501521538
251,1021328.6686350495
2,1, 8, 1, 0, 7, 0.00,60.00,Tuesday
23,3371875.054726362
35,3371875.054726362
251,1585041.9872675543
2,1, 8, 1, 0, 8, 0.00,60.00,Tuesday
23,3729475.7780087266
35,3729475.7780087266
251,2893266.052765144
2,1, 8, 1, 0, 9, 0.00,60.00,Tuesday
23,3298618.617333378
35,3298618.617333378
251,5226878.833274142
2,1, 8, 1, 0,10, 0.00,60.00,Tuesday
23,3122592.2634365067
35,3122592.2634365067
251,7714347.653766458
2,1, 8, 1, 0,11, 0.00,60.00,Tuesday
23,3178856.656011372
35,3178856.656011372
251,9430030.570927453
2,1, 8, 1, 0,12, 0.00,60.00,Tuesday
23,3222596.597944462
35,3222596.597944462
251,9223406.270706758
2,1, 8, 1, 0,13, 0.00,60.00,Tuesday
23,3174829.2448341168
35,3174829.2448341168
251,9690712.257770105
2,1, 8, 1, 0,14, 0.00,60.00,Tuesday
23,3121083.862455791
35,3121083.862455791
251,10150055.265137919
2,1, 8, 1, 0,15, 0.00,60.00,Tuesday
23,3130150.3294255619
35,3130150.3294255619
251,8605839.080609644
2,1, 8, 1, 0,16, 0.00,60.00,Tuesday
23,3397295.8878673256
35,3397295.8878673256
251,10419000.739612904
2,1, 8, 1, 0,17, 0.00,60.00,Tuesday
23,4285039.822795357
35,4285039.822795357
251,7833338.315209189
2,1, 8, 1, 0,18, 0.00,60.00,Tuesday
23,5398091.6345649179
35,5398091.6345649179
251,8567331.992025063
2,1, 8, 1, 0,19, 0.00,60.00,Tuesday
23,5779156.670941541
35,5779156.670941541
251,7897078.306129193
2,1, 8, 1, 0,20, 0.00,60.00,Tuesday
23,5686615.049543408
35,5686615.049543408
251,6447034.671270005
2,1, 8, 1, 0,21, 0.00,60.00,Tuesday
23,5614088.481939626
35,5614088.481939626
251,4338737.138711022
2,1, 8, 1, 0,22, 0.00,60.00,Tuesday
23,5143274.6127171409
35,5143274.6127171409
251,4692600.422806659
2,1, 8, 1, 0,23, 0.00,60.00,Tuesday
23,4102397.32953754
35,4102397.32953754
251,4088024.326038243
2,1, 8, 1, 0,24, 0.00,60.00,Tuesday
23,3198484.434672712
35,3198484.434672712
251,3083518.1731508166
2,2, 8, 2, 0, 1, 0.00,60.00,Wednesday
23,2486500.2610301256
35,2486500.2610301256
251,2071768.167873431
2,2, 8, 2, 0, 2, 0.00,60.00,Wednesday
23,2275929.455018319
35,2275929.455018319
251,1609850.5250822409
2,2, 8, 2, 0, 3, 0.00,60.00,Wednesday
23,2206408.707058266
35,2206408.707058266
251,1231503.4992661232
2,2, 8, 2, 0, 4, 0.00,60.00,Wednesday
23,2155182.0550951475
35,2155182.0550951475
251,929827.5861604635
2,2, 8, 2, 0, 5, 0.00,60.00,Wednesday
23,2291055.620266884
35,2291055.620266884
251,686083.3488858548
2,2, 8, 2, 0, 6, 0.00,60.00,Wednesday
23,2813501.501521538
35,2813501.501521538
251,864037.7993925001
2,2, 8, 2, 0, 7, 0.00,60.00,Wednesday
23,3371875.054726362
35,3371875.054726362
251,1144939.3430996123
2,2, 8, 2, 0, 8, 0.00,60.00,Wednesday
23,3729475.7780087266
35,3729475.7780087266
251,2546590.083576891
2,2, 8, 2, 0, 9, 0.00,60.00,Wednesday
23,3298618.617333378
35,3298618.617333378
251,6834091.683289222
2,2, 8, 2, 0,10, 0.00,60.00,Wednesday
23,3122592.2634365067
35,3122592.2634365067
251,8541827.160103955
2,2, 8, 2, 0,11, 0.00,60.00,Wednesday
23,3178856.656011372
35,3178856.656011372
251,9559532.362856832
2,2, 8, 2, 0,12, 0.00,60.00,Wednesday
23,3222596.597944462
35,3222596.597944462
251,9615539.880935124
2,2, 8, 2, 0,13, 0.00,60.00,Wednesday
23,3174829.2448341168
35,3174829.2448341168
251,9836706.849142025
2,2, 8, 2, 0,14, 0.00,60.00,Wednesday
23,3121083.862455791
35,3121083.862455791
251,10887770.402451039
2,2, 8, 2, 0,15, 0.00,60.00,Wednesday
23,3130150.3294255619
35,3130150.3294255619
251,10929383.19014631
2,2, 8, 2, 0,16, 0.00,60.00,Wednesday
23,3397295.8878673256
35,3397295.8878673256
251,10772941.012265888
2,2, 8, 2, 0,17, 0.00,60.00,Wednesday
23,4285039.822795357
35,4285039.822795357
251,9924750.207517786
2,2, 8, 2, 0,18, 0.00,60.00,Wednesday
23,5398091.6345649179
35,5398091.6345649179
251,8802119.55253909
2,2, 8, 2, 0,19, 0.00,60.00,Wednesday
23,5779156.670941541
35,5779156.670941541
251,7828008.874090901
2,2, 8, 2, 0,20, 0.00,60.00,Wednesday
23,5686615.049543408
35,5686615.049543408
251,6287012.697361145
2,2, 8, 2, 0,21, 0.00,60.00,Wednesday
23,5614088.481939626
35,5614088.481939626
251,6257025.130564839
2,2, 8, 2, 0,22, 0.00,60.00,Wednesday
23,5143274.6127171409
35,5143274.6127171409
251,5318164.954332392
2,2, 8, 2, 0,23, 0.00,60.00,Wednesday
23,4102397.32953754
35,4102397.32953754
251,4519108.91908956
2,2, 8, 2, 0,24, 0.00,60.00,Wednesday
23,3198484.434672712
35,3198484.434672712
251,3540380.7439472929
2,3, 8, 3, 0, 1, 0.00,60.00,Thursday
23,2486500.2610301256
35,2486500.2610301256
251,3267727.9826351006
2,3, 8, 3, 0, 2, 0.00,60.00,Thursday
23,2275929.455018319
35,2275929.455018319
251,2408879.3981908007
2,3, 8, 3, 0, 3, 0.00,60.00,Thursday
23,2206408.707058266
35,2206408.707058266
251,2195445.851437597
2,3, 8, 3, 0, 4, 0.00,60.00,Thursday
23,2155182.0550951475
35,2155182.0550951475
251,1780495.1105090618
2,3, 8, 3, 0, 5, 0.00,60.00,Thursday
23,2291055.620266884
35,2291055.620266884
251,1590092.5463409657
2,3, 8, 3, 0, 6, 0.00,60.00,Thursday
23,2813501.501521538
35,2813501.501521538
251,486167.42835056086
2,3, 8, 3, 0, 7, 0.00,60.00,Thursday
23,3371875.054726362
35,3371875.054726362
251,2133783.778707418
2,3, 8, 3, 0, 8, 0.00,60.00,Thursday
23,3729475.7780087266
35,3729475.7780087266
251,3562320.6188364627
2,3, 8, 3, 0, 9, 0.00,60.00,Thursday
23,3298618.617333378
35,3298618.617333378
251,6953288.731677626
2,3, 8, 3, 0,10, 0.00,60.00,Thursday
23,3122592.2634365067
35,3122592.2634365067
251,8992128.20113445
2,3, 8, 3, 0,11, 0.00,60.00,Thursday
23,3178856.656011372
35,3178856.656011372
251,8424319.277672556
2,3, 8, 3, 0,12, 0.00,60.00,Thursday
23,3222596.597944462
35,3222596.597944462
251,8832413.885457794
2,3, 8, 3, 0,13, 0.00,60.00,Thursday
23,3174829.2448341168
35,3174829.2448341168
251,7324522.698451748
2,3, 8, 3, 0,14, 0.00,60.00,Thursday
23,3121083.862455791
35,3121083.862455791
251,8526265.805630422
2,3, 8, 3, 0,15, 0.00,60.00,Thursday
23,3130150.3294255619
35,3130150.3294255619
251,10198093.340619959
2,3, 8, 3, 0,16, 0.00,60.00,Thursday
23,3397295.8878673256
35,3397295.8878673256
251,6958993.367126532
2,3, 8, 3, 0,17, 0.00,60.00,Thursday
23,4285039.822795357
35,4285039.822795357
251,5640328.412507718
2,3, 8, 3, 0,18, 0.00,60.00,Thursday
23,5398091.6345649179
35,5398091.6345649179
251,4917342.095630855
2,3, 8, 3, 0,19, 0.00,60.00,Thursday
23,5779156.670941541
35,5779156.670941541
251,5211984.020849861
2,3, 8, 3, 0,20, 0.00,60.00,Thursday
23,5686615.049543408
35,5686615.049543408
251,4857865.207507138
2,3, 8, 3, 0,21, 0.00,60.00,Thursday
23,5614088.481939626
35,5614088.481939626
251,4569540.795532245
2,3, 8, 3, 0,22, 0.00,60.00,Thursday
23,5143274.6127171409
35,5143274.6127171409
251,4295857.113900755
2,3, 8, 3, 0,23, 0.00,60.00,Thursday
23,4102397.32953754
35,4102397.32953754
251,2994914.2445704687
2,3, 8, 3, 0,24, 0.00,60.00,Thursday
23,3198484.434672712
35,3198484.434672712
251,2737019.9135635264
2,4, 8, 4, 0, 1, 0.00,60.00,Friday
23,2486500.2610301256
35,2486500.2610301256
251,2076243.6591577039
2,4, 8, 4, 0, 2, 0.00,60.00,Friday
23,2275929.455018319
35,2275929.455018319
251,1635373.923622743
2,4, 8, 4, 0, 3, 0.00,60.00,Friday
23,2206408.707058266
35,2206408.707058266
251,1454951.2163083843
2,4, 8, 4, 0, 4, 0.00,60.00,Friday
23,2155182.0550951475
35,2155182.0550951475
251,1427923.877771485
2,4, 8, 4, 0, 5, 0.00,60.00,Friday
23,2291055.620266884
35,2291055.620266884
251,1299246.7394879126
2,4, 8, 4, 0, 6, 0.00,60.00,Friday
23,2813501.501521538
35,2813501.501521538
251,1261365.4614570854
2,4, 8, 4, 0, 7, 0.00,60.00,Friday
23,3371875.054726362
35,3371875.054726362
251,1927149.8310363515
2,4, 8, 4, 0, 8, 0.00,60.00,Friday
23,3729475.7780087266
35,3729475.7780087266
251,3752674.34621196
2,4, 8, 4, 0, 9, 0.00,60.00,Friday
23,3298618.617333378
35,3298618.617333378
251,5721714.891340046
2,4, 8, 4, 0,10, 0.00,60.00,Friday
23,3122592.2634365067
35,3122592.2634365067
251,9175431.0531057
2,4, 8, 4, 0,11, 0.00,60.00,Friday
23,3178856.656011372
35,3178856.656011372
251,10025359.773430244
2,4, 8, 4, 0,12, 0.00,60.00,Friday
23,3222596.597944462
35,3222596.597944462
251,10167167.761323655
2,4, 8, 4, 0,13, 0.00,60.00,Friday
23,3174829.2448341168
35,3174829.2448341168
251,10456759.07051874
2,4, 8, 4, 0,14, 0.00,60.00,Friday
23,3121083.862455791
35,3121083.862455791
251,9931147.586353032
2,4, 8, 4, 0,15, 0.00,60.00,Friday
23,3130150.3294255619
35,3130150.3294255619
251,9987429.042431379
2,4, 8, 4, 0,16, 0.00,60.00,Friday
23,3397295.8878673256
35,3397295.8878673256
251,9011995.164204959
2,4, 8, 4, 0,17, 0.00,60.00,Friday
23,4285039.822795357
35,4285039.822795357
251,8685949.808182147
2,4, 8, 4, 0,18, 0.00,60.00,Friday
23,5398091.6345649179
35,5398091.6345649179
251,8908363.215997974
2,4, 8, 4, 0,19, 0.00,60.00,Friday
23,5779156.670941541
35,5779156.670941541
251,8065110.3558012009
2,4, 8, 4, 0,20, 0.00,60.00,Friday
23,5686615.049543408
35,5686615.049543408
251,5901650.373973162
2,4, 8, 4, 0,21, 0.00,60.00,Friday
23,5614088.481939626
35,5614088.481939626
251,4910727.3531719739
2,4, 8, 4, 0,22, 0.00,60.00,Friday
23,5143274.6127171409
35,5143274.6127171409
251,4700511.885098256
2,4, 8, 4, 0,23, 0.00,60.00,Friday
23,4102397.32953754
35,4102397.32953754
251,4216484.603958528
2,4, 8, 4, 0,24, 0.00,60.00,Friday
23,3198484.434672712
35,3198484.434672712
251,3041724.04449928
2,5, 8, 5, 0, 1, 0.00,60.00,Saturday
23,2507363.126376901
35,2507363.126376901
251,2526996.650851097
2,5, 8, 5, 0, 2, 0.00,60.00,Saturday
23,2288506.8778496326
35,2288506.8778496326
251,2104755.305466005
2,5, 8, 5, 0, 3, 0.00,60.00,Saturday
23,2214621.3439117635
35,2214621.3439117635
251,1803513.9889213849
2,5, 8, 5, 0, 4, 0.00,60.00,Saturday
23,2159761.658385371
35,2159761.658385371
251,1329507.1027773682
2,5, 8, 5, 0, 5, 0.00,60.00,Saturday
23,2299781.9639543166
35,2299781.9639543166
251,1083332.6267325944
2,5, 8, 5, 0, 6, 0.00,60.00,Saturday
23,2827244.217687898
35,2827244.217687898
251,999368.222743263
2,5, 8, 5, 0, 7, 0.00,60.00,Saturday
23,3406194.2883854808
35,3406194.2883854808
251,609170.1735910543
2,5, 8, 5, 0, 8, 0.00,60.00,Saturday
23,3797542.2276464195
35,3797542.2276464195
251,3416395.2057946498
2,5, 8, 5, 0, 9, 0.00,60.00,Saturday
23,3403606.7292179537
35,3403606.7292179537
251,6838629.224760982
2,5, 8, 5, 0,10, 0.00,60.00,Saturday
23,3265169.3089626759
35,3265169.3089626759
251,9140905.063207325
2,5, 8, 5, 0,11, 0.00,60.00,Saturday
23,3337062.1007432315
35,3337062.1007432315
251,9778192.690584228
2,5, 8, 5, 0,12, 0.00,60.00,Saturday
23,3383357.6435141728
35,3383357.6435141728
251,9314941.746071617
2,5, 8, 5, 0,13, 0.00,60.00,Saturday
23,3320956.43067169
35,3320956.43067169
251,7024697.402096699
2,5, 8, 5, 0,14, 0.00,60.00,Saturday
23,3254793.064694836
35,3254793.064694836
251,6818364.666228482
2,5, 8, 5, 0,15, 0.00,60.00,Saturday
23,3249699.055634444
35,3249699.055634444
251,8365002.403804146
2,5, 8, 5, 0,16, 0.00,60.00,Saturday
23,3510426.619465768
35,3510426.619465768
251,8053189.370723069
2,5, 8, 5, 0,17, 0.00,60.00,Saturday
23,4395337.575518478
35,4395337.575518478
251,5941869.0064520309
2,5, 8, 5, 0,18, 0.00,60.00,Saturday
23,5507493.433711505
35,5507493.433711505
251,4019062.4945118275
2,5, 8, 5, 0,19, 0.00,60.00,Saturday
23,5888567.229445574
35,5888567.229445574
251,5116591.492840687
2,5, 8, 5, 0,20, 0.00,60.00,Saturday
23,5797708.816103766
35,5797708.816103766
251,4529933.012323048
2,5, 8, 5, 0,21, 0.00,60.00,Saturday
23,5725296.910954915
35,5725296.910954915
251,3882137.0229035036
2,5, 8, 5, 0,22, 0.00,60.00,Saturday
23,5254487.803661637
35,5254487.803661637
251,3612763.480119357
2,5, 8, 5, 0,23, 0.00,60.00,Saturday
23,4189416.702401155
35,4189416.702401155
251,2098556.2657375868
2,5, 8, 5, 0,24, 0.00,60.00,Saturday
23,3246680.6811934115
35,3246680.6811934115
251,2025875.612852118
2,6, 8, 6, 0, 1, 0.00,60.00,Sunday
23,2507363.126376901
35,2507363.126376901
251,1398764.4903428117
2,6, 8, 6, 0, 2, 0.00,60.00,Sunday
23,2288506.8778496326
35,2288506.8778496326
251,1263707.9569700594
2,6, 8, 6, 0, 3, 0.00,60.00,Sunday
23,2214621.3439117635
35,2214621.3439117635
251,904330.9291366553
2,6, 8, 6, 0, 4, 0.00,60.00,Sunday
23,2159761.658385371
35,2159761.658385371
251,647555.8240268222
2,6, 8, 6, 0, 5, 0.00,60.00,Sunday
23,2299781.9639543166
35,2299781.9639543166
251,465502.4054228091
2,6, 8, 6, 0, 6, 0.00,60.00,Sunday
23,2827244.217687898
35,2827244.217687898
251,544758.3955815943
2,6, 8, 6, 0, 7, 0.00,60.00,Sunday
23,3406194.2883854808
35,3406194.2883854808
251,1251234.0256498974
2,6, 8, 6, 0, 8, 0.00,60.00,Sunday
23,3797542.2276464195
35,3797542.2276464195
251,2911982.059386073
2,6, 8, 6, 0, 9, 0.00,60.00,Sunday
23,3403606.7292179537
35,3403606.7292179537
251,4042297.516050945
2,6, 8, 6, 0,10, 0.00,60.00,Sunday
23,3265169.3089626759
35,3265169.3089626759
251,8774666.019566035
2,6, 8, 6, 0,11, 0.00,60.00,Sunday
23,3337062.1007432315
35,3337062.1007432315
251,9411196.996860806
2,6, 8, 6, 0,12, 0.00,60.00,Sunday
23,3383357.6435141728
35,3383357.6435141728
251,8269731.14922886
2,6, 8, 6, 0,13, 0.00,60.00,Sunday
23,3320956.43067169
35,3320956.43067169
251,7708508.846413533
2,6, 8, 6, 0,14, 0.00,60.00,Sunday
23,3254793.064694836
35,3254793.064694836
251,5842417.086004217
2,6, 8, 6, 0,15, 0.00,60.00,Sunday
23,3249699.055634444
35,3249699.055634444
251,4811926.086473769
2,6, 8, 6, 0,16, 0.00,60.00,Sunday
23,3510426.619465768
35,3510426.619465768
251,6475805.859422572
2,6, 8, 6, 0,17, 0.00,60.00,Sunday
23,4395337.575518478
35,4395337.575518478
251,7362040.704273673
2,6, 8, 6, 0,18, 0.00,60.00,Sunday
23,5507493.433711505
35,5507493.433711505
251,6468371.06811672
2,6, 8, 6, 0,19, 0.00,60.00,Sunday
23,5888567.229445574
35,5888567.229445574
251,5687005.533629026
2,6, 8, 6, 0,20, 0.00,60.00,Sunday
23,5797708.816103766
35,5797708.816103766
251,3718881.660833499
2,6, 8, 6, 0,21, 0.00,60.00,Sunday
23,5725296.910954915
35,5725296.910954915
251,4209731.493425856
2,6, 8, 6, 0,22, 0.00,60.00,Sunday
23,5254487.803661637
35,5254487.803661637
251,3564557.728589128
2,6, 8, 6, 0,23, 0.00,60.00,Sunday
23,4189416.702401155
35,4189416.702401155
251,3564388.5862095
2,6, 8, 6, 0,24, 0.00,60.00,Sunday
23,3246680.6811934115
35,3246680.6811934115
251,2719808.65774234
2,7, 8, 7, 0, 1, 0.00,60.00,Monday
23,2486500.2610301256
35,2486500.2610301256
251,2088196.7279840999
2,7, 8, 7, 0, 2, 0.00,60.00,Monday
23,2275929.455018319
35,2275929.455018319
251,1814318.3836181849
2,7, 8, 7, 0, 3, 0.00,60.00,Monday
23,2206408.707058266
35,2206408.707058266
251,1487585.6344841643
2,7, 8, 7, 0, 4, 0.00,60.00,Monday
23,2155182.0550951475
35,2155182.0550951475
251,1511653.2487863915
2,7, 8, 7, 0, 5, 0.00,60.00,Monday
23,2291055.620266884
35,2291055.620266884
251,1490840.1917193603
2,7, 8, 7, 0, 6, 0.00,60.00,Monday
23,2813501.501521538
35,2813501.501521538
251,498660.31204627527
2,7, 8, 7, 0, 7, 0.00,60.00,Monday
23,3371875.054726362
35,3371875.054726362
251,1015626.2899997027
2,7, 8, 7, 0, 8, 0.00,60.00,Monday
23,3729475.7780087266
35,3729475.7780087266
251,1183115.2524564898
2,7, 8, 7, 0, 9, 0.00,60.00,Monday
23,3298618.617333378
35,3298618.617333378
251,1785841.578763283
2,7, 8, 7, 0,10, 0.00,60.00,Monday
23,3122592.2634365067
35,3122592.2634365067
251,3659416.081597132
2,7, 8, 7, 0,11, 0.00,60.00,Monday
23,3178856.656011372
35,3178856.656011372
251,3766387.139839396
2,7, 8, 7, 0,12, 0.00,60.00,Monday
23,3222596.597944462
35,3222596.597944462
251,4313999.908661557
2,7, 8, 7, 0,13, 0.00,60.00,Monday
23,3174829.2448341168
35,3174829.2448341168
251,5389206.429572424
2,7, 8, 7, 0,14, 0.00,60.00,Monday
23,3121083.862455791
35,3121083.862455791
251,5786087.264740569
2,7, 8, 7, 0,15, 0.00,60.00,Monday
23,3130150.3294255619
35,3130150.3294255619
251,4985640.679259918
2,7, 8, 7, 0,16, 0.00,60.00,Monday
23,3397295.8878673256
35,3397295.8878673256
251,4367477.7987722349
2,7, 8, 7, 0,17, 0.00,60.00,Monday
23,4285039.822795357
35,4285039.822795357
251,3068485.468038842
2,7, 8, 7, 0,18, 0.00,60.00,Monday
23,5398091.6345649179
35,5398091.6345649179
251,3935031.1267829325
2,7, 8, 7, 0,19, 0.00,60.00,Monday
23,5779156.670941541
35,5779156.670941541
251,4338436.261211505
2,7, 8, 7, 0,20, 0.00,60.00,Monday
23,5686615.049543408
35,5686615.049543408
251,3496672.753141339
2,7, 8, 7, 0,21, 0.00,60.00,Monday
23,5614088.481939626
35,5614088.481939626
251,3064024.9703013256
2,7, 8, 7, 0,22, 0.00,60.00,Monday
23,5143274.6127171409
35,5143274.6127171409
251,2588077.1023406919
2,7, 8, 7, 0,23, 0.00,60.00,Monday
23,4102397.32953754
35,4102397.32953754
251,1155514.6781540334
2,7, 8, 7, 0,24, 0.00,60.00,Monday
23,3198484.434672712
35,3198484.434672712
251,1516105.2625480504
End of Data
 Number of Records Written=         648
